# Time        	(total_x total_y total_z)	(pressure_x pressure_y pressure_z)	(viscous_x viscous_y viscous_z)
1             	(-1.303925e+04 1.238772e+04 -4.526346e+03)	(-1.303514e+04 1.238768e+04 -4.526377e+03)	(-4.107154e+00 3.063682e-02 3.180055e-02)
2             	(-2.000910e+02 1.986556e+03 4.119678e+03)	(-1.960099e+02 1.986531e+03 4.119632e+03)	(-4.081044e+00 2.545868e-02 4.507729e-02)
3             	(-9.418270e+01 1.774827e+03 3.924630e+03)	(-8.994267e+01 1.774811e+03 3.924583e+03)	(-4.240031e+00 1.600319e-02 4.679791e-02)
4             	(-6.359491e+01 1.767529e+03 4.014706e+03)	(-5.881665e+01 1.767518e+03 4.014656e+03)	(-4.778257e+00 1.109888e-02 5.081753e-02)
5             	(-5.102470e+01 1.737157e+03 3.987395e+03)	(-4.553307e+01 1.737147e+03 3.987339e+03)	(-5.491630e+00 9.897604e-03 5.573612e-02)
6             	(-4.227843e+01 1.723349e+03 3.988037e+03)	(-3.599645e+01 1.723340e+03 3.987975e+03)	(-6.281980e+00 8.851634e-03 6.250378e-02)
7             	(-3.875539e+01 1.720739e+03 3.998328e+03)	(-3.170993e+01 1.720733e+03 3.998256e+03)	(-7.045452e+00 6.595352e-03 7.172968e-02)
8             	(-3.571287e+01 1.713292e+03 3.999286e+03)	(-2.791245e+01 1.713286e+03 3.999205e+03)	(-7.800425e+00 5.849349e-03 8.126592e-02)
9             	(-3.434690e+01 1.707171e+03 3.993791e+03)	(-2.563586e+01 1.707166e+03 3.993700e+03)	(-8.711037e+00 4.843008e-03 9.079651e-02)
10            	(-3.266208e+01 1.697992e+03 3.985738e+03)	(-2.288905e+01 1.697987e+03 3.985638e+03)	(-9.773028e+00 4.863038e-03 9.911051e-02)
11            	(-3.231493e+01 1.695745e+03 3.984121e+03)	(-2.160474e+01 1.695741e+03 3.984017e+03)	(-1.071019e+01 3.430082e-03 1.040276e-01)
12            	(-3.244875e+01 1.693889e+03 3.983565e+03)	(-2.083742e+01 1.693887e+03 3.983454e+03)	(-1.161133e+01 2.675438e-03 1.106883e-01)
13            	(-3.249697e+01 1.692238e+03 3.983339e+03)	(-2.010441e+01 1.692235e+03 3.983222e+03)	(-1.239256e+01 2.965859e-03 1.170659e-01)
14            	(-3.311756e+01 1.689115e+03 3.978908e+03)	(-2.019051e+01 1.689112e+03 3.978789e+03)	(-1.292706e+01 2.970419e-03 1.194038e-01)
15            	(-3.313639e+01 1.692729e+03 3.985725e+03)	(-1.961273e+01 1.692724e+03 3.985602e+03)	(-1.352366e+01 4.801022e-03 1.236009e-01)
16            	(-3.396774e+01 1.693548e+03 3.985794e+03)	(-1.996484e+01 1.693542e+03 3.985666e+03)	(-1.400291e+01 6.402451e-03 1.278793e-01)
17            	(-3.429592e+01 1.691532e+03 3.981743e+03)	(-1.985527e+01 1.691523e+03 3.981611e+03)	(-1.444066e+01 8.857281e-03 1.320209e-01)
18            	(-3.493841e+01 1.692763e+03 3.982493e+03)	(-2.014639e+01 1.692753e+03 3.982357e+03)	(-1.479203e+01 1.067606e-02 1.363167e-01)
19            	(-3.558196e+01 1.691076e+03 3.978380e+03)	(-2.058053e+01 1.691067e+03 3.978242e+03)	(-1.500143e+01 9.281183e-03 1.379261e-01)
20            	(-3.590735e+01 1.694215e+03 3.982142e+03)	(-2.066324e+01 1.694208e+03 3.982003e+03)	(-1.524411e+01 6.608434e-03 1.390093e-01)
21            	(-3.636485e+01 1.693865e+03 3.981261e+03)	(-2.090504e+01 1.693860e+03 3.981121e+03)	(-1.545980e+01 4.437682e-03 1.395193e-01)
22            	(-3.669238e+01 1.691324e+03 3.977101e+03)	(-2.104354e+01 1.691320e+03 3.976960e+03)	(-1.564885e+01 4.061178e-03 1.402799e-01)
23            	(-3.637928e+01 1.690799e+03 3.976947e+03)	(-2.062405e+01 1.690797e+03 3.976811e+03)	(-1.575524e+01 1.374298e-03 1.362793e-01)
24            	(-3.749417e+01 1.687839e+03 3.970569e+03)	(-2.160775e+01 1.687843e+03 3.970440e+03)	(-1.588642e+01 -3.874876e-03 1.293333e-01)
25            	(-3.772265e+01 1.686200e+03 3.966956e+03)	(-2.176353e+01 1.686210e+03 3.966830e+03)	(-1.595912e+01 -1.060161e-02 1.254845e-01)
26            	(-3.722784e+01 1.688983e+03 3.971632e+03)	(-2.121446e+01 1.689001e+03 3.971513e+03)	(-1.601337e+01 -1.736283e-02 1.195536e-01)
27            	(-3.724302e+01 1.688471e+03 3.972280e+03)	(-2.119692e+01 1.688494e+03 3.972167e+03)	(-1.604610e+01 -2.303960e-02 1.125583e-01)
28            	(-3.746193e+01 1.688480e+03 3.971033e+03)	(-2.130005e+01 1.688507e+03 3.970923e+03)	(-1.616188e+01 -2.694517e-02 1.102780e-01)
29            	(-3.722190e+01 1.686343e+03 3.966146e+03)	(-2.099093e+01 1.686373e+03 3.966041e+03)	(-1.623097e+01 -3.045506e-02 1.046687e-01)
30            	(-3.778925e+01 1.690868e+03 3.972925e+03)	(-2.151778e+01 1.690905e+03 3.972827e+03)	(-1.627147e+01 -3.645790e-02 9.722399e-02)
31            	(-3.921166e+01 1.685279e+03 3.963837e+03)	(-2.293559e+01 1.685321e+03 3.963748e+03)	(-1.627607e+01 -4.227180e-02 8.905578e-02)
32            	(-3.808996e+01 1.689546e+03 3.970538e+03)	(-2.185272e+01 1.689594e+03 3.970456e+03)	(-1.623724e+01 -4.737906e-02 8.128213e-02)
33            	(-3.792117e+01 1.688357e+03 3.968426e+03)	(-2.172537e+01 1.688409e+03 3.968352e+03)	(-1.619580e+01 -5.257534e-02 7.385612e-02)
34            	(-3.752207e+01 1.684983e+03 3.961780e+03)	(-2.134777e+01 1.685043e+03 3.961717e+03)	(-1.617430e+01 -6.005817e-02 6.302737e-02)
35            	(-3.752315e+01 1.685189e+03 3.962793e+03)	(-2.137279e+01 1.685257e+03 3.962741e+03)	(-1.615036e+01 -6.796919e-02 5.226146e-02)
36            	(-3.838612e+01 1.683408e+03 3.958613e+03)	(-2.219399e+01 1.683484e+03 3.958569e+03)	(-1.619214e+01 -7.555390e-02 4.393235e-02)
37            	(-3.822418e+01 1.683584e+03 3.958101e+03)	(-2.202247e+01 1.683667e+03 3.958067e+03)	(-1.620170e+01 -8.300815e-02 3.408331e-02)
38            	(-3.796787e+01 1.684283e+03 3.960292e+03)	(-2.179403e+01 1.684372e+03 3.960268e+03)	(-1.617384e+01 -8.975580e-02 2.453310e-02)
39            	(-3.826331e+01 1.684103e+03 3.959733e+03)	(-2.213711e+01 1.684199e+03 3.959719e+03)	(-1.612620e+01 -9.595055e-02 1.477054e-02)
40            	(-3.783897e+01 1.683426e+03 3.958013e+03)	(-2.176916e+01 1.683528e+03 3.958007e+03)	(-1.606981e+01 -1.016787e-01 5.817983e-03)
41            	(-3.783740e+01 1.682685e+03 3.956159e+03)	(-2.176895e+01 1.682792e+03 3.956161e+03)	(-1.606845e+01 -1.068099e-01 -2.887005e-03)
42            	(-3.804659e+01 1.682617e+03 3.955546e+03)	(-2.199840e+01 1.682730e+03 3.955558e+03)	(-1.604820e+01 -1.125343e-01 -1.182045e-02)
43            	(-3.793110e+01 1.682431e+03 3.956772e+03)	(-2.192181e+01 1.682547e+03 3.956792e+03)	(-1.600930e+01 -1.167602e-01 -2.070324e-02)
44            	(-3.821152e+01 1.681679e+03 3.954356e+03)	(-2.224328e+01 1.681800e+03 3.954385e+03)	(-1.596823e+01 -1.215269e-01 -2.921626e-02)
45            	(-3.806267e+01 1.681053e+03 3.954327e+03)	(-2.213386e+01 1.681178e+03 3.954365e+03)	(-1.592881e+01 -1.253278e-01 -3.743490e-02)
46            	(-3.816594e+01 1.680523e+03 3.952571e+03)	(-2.226552e+01 1.680652e+03 3.952616e+03)	(-1.590042e+01 -1.290289e-01 -4.512616e-02)
47            	(-3.830734e+01 1.679882e+03 3.950224e+03)	(-2.239832e+01 1.680015e+03 3.950276e+03)	(-1.590902e+01 -1.328339e-01 -5.210590e-02)
48            	(-3.844404e+01 1.680107e+03 3.950719e+03)	(-2.254066e+01 1.680244e+03 3.950779e+03)	(-1.590337e+01 -1.369265e-01 -5.919442e-02)
49            	(-3.848771e+01 1.679591e+03 3.950893e+03)	(-2.260006e+01 1.679732e+03 3.950959e+03)	(-1.588765e+01 -1.403337e-01 -6.604697e-02)
50            	(-3.864312e+01 1.678749e+03 3.949443e+03)	(-2.277429e+01 1.678893e+03 3.949516e+03)	(-1.586884e+01 -1.434130e-01 -7.254788e-02)
51            	(-3.872314e+01 1.678144e+03 3.948704e+03)	(-2.287079e+01 1.678290e+03 3.948783e+03)	(-1.585236e+01 -1.462181e-01 -7.875650e-02)
52            	(-3.886499e+01 1.677213e+03 3.947414e+03)	(-2.302605e+01 1.677362e+03 3.947498e+03)	(-1.583894e+01 -1.487477e-01 -8.457128e-02)
53            	(-3.874255e+01 1.676924e+03 3.947036e+03)	(-2.291990e+01 1.677076e+03 3.947126e+03)	(-1.582266e+01 -1.511971e-01 -9.035720e-02)
54            	(-3.878244e+01 1.676000e+03 3.945109e+03)	(-2.298333e+01 1.676154e+03 3.945206e+03)	(-1.579910e+01 -1.539017e-01 -9.659108e-02)
55            	(-3.931472e+01 1.673745e+03 3.941272e+03)	(-2.354230e+01 1.673901e+03 3.941376e+03)	(-1.577242e+01 -1.568441e-01 -1.035458e-01)
56            	(-3.913007e+01 1.673612e+03 3.940997e+03)	(-2.337927e+01 1.673772e+03 3.941107e+03)	(-1.575080e+01 -1.593259e-01 -1.099146e-01)
57            	(-3.914733e+01 1.672995e+03 3.940439e+03)	(-2.341569e+01 1.673157e+03 3.940555e+03)	(-1.573164e+01 -1.615526e-01 -1.160790e-01)
58            	(-3.904506e+01 1.672777e+03 3.940362e+03)	(-2.332850e+01 1.672940e+03 3.940484e+03)	(-1.571656e+01 -1.635642e-01 -1.219500e-01)
59            	(-3.911253e+01 1.672182e+03 3.939433e+03)	(-2.340728e+01 1.672347e+03 3.939561e+03)	(-1.570525e+01 -1.654553e-01 -1.277615e-01)
60            	(-3.916950e+01 1.671734e+03 3.938735e+03)	(-2.347274e+01 1.671901e+03 3.938869e+03)	(-1.569676e+01 -1.672554e-01 -1.335810e-01)
61            	(-3.920774e+01 1.670932e+03 3.937573e+03)	(-2.351689e+01 1.671101e+03 3.937713e+03)	(-1.569085e+01 -1.690256e-01 -1.396120e-01)
62            	(-3.916786e+01 1.669781e+03 3.936719e+03)	(-2.348351e+01 1.669952e+03 3.936865e+03)	(-1.568435e+01 -1.710615e-01 -1.459398e-01)
63            	(-3.923125e+01 1.669154e+03 3.936698e+03)	(-2.354088e+01 1.669326e+03 3.936850e+03)	(-1.569037e+01 -1.723569e-01 -1.522752e-01)
64            	(-3.928511e+01 1.668403e+03 3.935018e+03)	(-2.359000e+01 1.668577e+03 3.935178e+03)	(-1.569512e+01 -1.740556e-01 -1.597362e-01)
65            	(-3.958508e+01 1.667413e+03 3.933473e+03)	(-2.388583e+01 1.667589e+03 3.933641e+03)	(-1.569925e+01 -1.760960e-01 -1.683441e-01)
66            	(-3.935118e+01 1.667044e+03 3.933519e+03)	(-2.364719e+01 1.667222e+03 3.933696e+03)	(-1.570399e+01 -1.778620e-01 -1.765111e-01)
67            	(-3.932080e+01 1.666499e+03 3.933378e+03)	(-2.360942e+01 1.666678e+03 3.933562e+03)	(-1.571138e+01 -1.792365e-01 -1.842267e-01)
68            	(-3.931882e+01 1.665661e+03 3.932420e+03)	(-2.359958e+01 1.665842e+03 3.932612e+03)	(-1.571924e+01 -1.805537e-01 -1.919351e-01)
69            	(-3.926217e+01 1.665010e+03 3.931865e+03)	(-2.353484e+01 1.665191e+03 3.932064e+03)	(-1.572732e+01 -1.816026e-01 -1.993637e-01)
70            	(-3.964196e+01 1.663198e+03 3.929436e+03)	(-2.390640e+01 1.663380e+03 3.929643e+03)	(-1.573556e+01 -1.822498e-01 -2.068745e-01)
71            	(-3.940794e+01 1.663483e+03 3.930340e+03)	(-2.366239e+01 1.663666e+03 3.930554e+03)	(-1.574554e+01 -1.826044e-01 -2.140217e-01)
72            	(-3.968207e+01 1.662361e+03 3.928621e+03)	(-2.392861e+01 1.662544e+03 3.928842e+03)	(-1.575345e+01 -1.827910e-01 -2.208269e-01)
73            	(-3.930949e+01 1.662429e+03 3.929634e+03)	(-2.354753e+01 1.662612e+03 3.929861e+03)	(-1.576196e+01 -1.828864e-01 -2.274121e-01)
74            	(-3.937471e+01 1.661758e+03 3.928985e+03)	(-2.360359e+01 1.661941e+03 3.929219e+03)	(-1.577112e+01 -1.828211e-01 -2.336998e-01)
75            	(-3.935957e+01 1.661358e+03 3.928710e+03)	(-2.357869e+01 1.661540e+03 3.928949e+03)	(-1.578088e+01 -1.825260e-01 -2.397814e-01)
76            	(-3.942642e+01 1.660866e+03 3.928194e+03)	(-2.363585e+01 1.661048e+03 3.928440e+03)	(-1.579057e+01 -1.821066e-01 -2.457704e-01)
77            	(-3.959108e+01 1.660450e+03 3.927269e+03)	(-2.379244e+01 1.660632e+03 3.927521e+03)	(-1.579864e+01 -1.814772e-01 -2.518812e-01)
78            	(-3.965411e+01 1.660033e+03 3.926403e+03)	(-2.384766e+01 1.660214e+03 3.926661e+03)	(-1.580645e+01 -1.806829e-01 -2.579069e-01)
79            	(-3.968825e+01 1.659486e+03 3.925695e+03)	(-2.387463e+01 1.659666e+03 3.925958e+03)	(-1.581363e+01 -1.798214e-01 -2.637323e-01)
80            	(-3.965900e+01 1.659154e+03 3.925310e+03)	(-2.383903e+01 1.659333e+03 3.925580e+03)	(-1.581997e+01 -1.788997e-01 -2.695145e-01)
81            	(-3.964804e+01 1.658406e+03 3.923689e+03)	(-2.382361e+01 1.658584e+03 3.923965e+03)	(-1.582443e+01 -1.782198e-01 -2.756282e-01)
82            	(-3.984154e+01 1.657495e+03 3.922118e+03)	(-2.401469e+01 1.657672e+03 3.922400e+03)	(-1.582686e+01 -1.774741e-01 -2.819838e-01)
83            	(-3.983520e+01 1.657103e+03 3.921417e+03)	(-2.400592e+01 1.657279e+03 3.921705e+03)	(-1.582928e+01 -1.765496e-01 -2.879472e-01)
84            	(-3.950705e+01 1.657369e+03 3.925851e+03)	(-2.367768e+01 1.657545e+03 3.926146e+03)	(-1.582937e+01 -1.757006e-01 -2.947975e-01)
85            	(-3.965418e+01 1.658332e+03 3.927497e+03)	(-2.382286e+01 1.658507e+03 3.927800e+03)	(-1.583132e+01 -1.749168e-01 -3.025795e-01)
86            	(-3.969967e+01 1.656950e+03 3.925319e+03)	(-2.386605e+01 1.657124e+03 3.925628e+03)	(-1.583362e+01 -1.739876e-01 -3.097983e-01)
87            	(-3.973804e+01 1.656925e+03 3.925433e+03)	(-2.390361e+01 1.657098e+03 3.925750e+03)	(-1.583443e+01 -1.729339e-01 -3.170759e-01)
88            	(-3.975015e+01 1.656860e+03 3.925601e+03)	(-2.391593e+01 1.657032e+03 3.925925e+03)	(-1.583422e+01 -1.717218e-01 -3.245769e-01)
89            	(-3.974933e+01 1.656308e+03 3.924722e+03)	(-2.391649e+01 1.656478e+03 3.925054e+03)	(-1.583284e+01 -1.704558e-01 -3.320822e-01)
90            	(-3.974832e+01 1.656040e+03 3.925010e+03)	(-2.391899e+01 1.656209e+03 3.925349e+03)	(-1.582933e+01 -1.691615e-01 -3.394185e-01)
91            	(-3.974928e+01 1.655675e+03 3.924892e+03)	(-2.392159e+01 1.655842e+03 3.925238e+03)	(-1.582769e+01 -1.674129e-01 -3.458248e-01)
92            	(-3.972166e+01 1.655712e+03 3.924480e+03)	(-2.389369e+01 1.655877e+03 3.924834e+03)	(-1.582797e+01 -1.650521e-01 -3.532242e-01)
93            	(-3.977320e+01 1.655808e+03 3.925741e+03)	(-2.394695e+01 1.655970e+03 3.926103e+03)	(-1.582624e+01 -1.626158e-01 -3.612071e-01)
94            	(-3.975798e+01 1.655063e+03 3.923644e+03)	(-2.393330e+01 1.655223e+03 3.924013e+03)	(-1.582468e+01 -1.599292e-01 -3.688738e-01)
95            	(-3.965502e+01 1.652179e+03 3.918294e+03)	(-2.383170e+01 1.652337e+03 3.918666e+03)	(-1.582332e+01 -1.586837e-01 -3.717962e-01)
96            	(-3.973342e+01 1.652555e+03 3.919432e+03)	(-2.391273e+01 1.652712e+03 3.919808e+03)	(-1.582069e+01 -1.574512e-01 -3.759651e-01)
97            	(-3.981705e+01 1.652215e+03 3.918384e+03)	(-2.399853e+01 1.652371e+03 3.918763e+03)	(-1.581852e+01 -1.563253e-01 -3.792680e-01)
98            	(-3.984674e+01 1.652031e+03 3.918271e+03)	(-2.403075e+01 1.652186e+03 3.918653e+03)	(-1.581599e+01 -1.552468e-01 -3.828183e-01)
99            	(-3.985420e+01 1.651822e+03 3.918002e+03)	(-2.404109e+01 1.651976e+03 3.918388e+03)	(-1.581311e+01 -1.541883e-01 -3.864854e-01)
100           	(-3.983127e+01 1.651693e+03 3.918100e+03)	(-2.402146e+01 1.651846e+03 3.918490e+03)	(-1.580980e+01 -1.531028e-01 -3.902755e-01)
101           	(-3.980402e+01 1.651401e+03 3.917973e+03)	(-2.399802e+01 1.651553e+03 3.918367e+03)	(-1.580600e+01 -1.519593e-01 -3.941469e-01)
102           	(-3.982511e+01 1.651217e+03 3.917714e+03)	(-2.402347e+01 1.651367e+03 3.918112e+03)	(-1.580164e+01 -1.507419e-01 -3.981376e-01)
103           	(-3.988326e+01 1.650842e+03 3.917241e+03)	(-2.408653e+01 1.650992e+03 3.917643e+03)	(-1.579673e+01 -1.494143e-01 -4.022149e-01)
104           	(-3.988499e+01 1.650453e+03 3.916832e+03)	(-2.409382e+01 1.650601e+03 3.917239e+03)	(-1.579117e+01 -1.480763e-01 -4.063849e-01)
105           	(-3.971811e+01 1.650335e+03 3.917174e+03)	(-2.393233e+01 1.650482e+03 3.917585e+03)	(-1.578577e+01 -1.464080e-01 -4.103607e-01)
106           	(-3.979994e+01 1.650200e+03 3.916738e+03)	(-2.402012e+01 1.650345e+03 3.917152e+03)	(-1.577982e+01 -1.447773e-01 -4.144431e-01)
107           	(-3.976316e+01 1.649862e+03 3.916319e+03)	(-2.398980e+01 1.650006e+03 3.916738e+03)	(-1.577336e+01 -1.431803e-01 -4.186142e-01)
108           	(-3.974030e+01 1.649656e+03 3.916165e+03)	(-2.397398e+01 1.649798e+03 3.916588e+03)	(-1.576632e+01 -1.416380e-01 -4.228557e-01)
109           	(-3.963618e+01 1.649342e+03 3.916035e+03)	(-2.387715e+01 1.649482e+03 3.916462e+03)	(-1.575903e+01 -1.401059e-01 -4.271541e-01)
110           	(-3.954666e+01 1.648852e+03 3.915790e+03)	(-2.379545e+01 1.648991e+03 3.916221e+03)	(-1.575121e+01 -1.385282e-01 -4.314109e-01)
111           	(-3.945090e+01 1.648491e+03 3.915564e+03)	(-2.370752e+01 1.648628e+03 3.916000e+03)	(-1.574338e+01 -1.368856e-01 -4.355626e-01)
112           	(-3.952276e+01 1.648347e+03 3.915248e+03)	(-2.378777e+01 1.648482e+03 3.915688e+03)	(-1.573500e+01 -1.352246e-01 -4.397731e-01)
113           	(-3.950807e+01 1.647531e+03 3.914191e+03)	(-2.378223e+01 1.647665e+03 3.914635e+03)	(-1.572584e+01 -1.334971e-01 -4.441756e-01)
114           	(-3.940564e+01 1.647320e+03 3.914568e+03)	(-2.368876e+01 1.647451e+03 3.915017e+03)	(-1.571687e+01 -1.315856e-01 -4.485640e-01)
115           	(-3.927476e+01 1.647068e+03 3.915323e+03)	(-2.356716e+01 1.647197e+03 3.915776e+03)	(-1.570760e+01 -1.296326e-01 -4.528812e-01)
116           	(-3.919021e+01 1.647194e+03 3.915508e+03)	(-2.349176e+01 1.647321e+03 3.915966e+03)	(-1.569845e+01 -1.275282e-01 -4.575602e-01)
117           	(-3.920569e+01 1.647092e+03 3.915270e+03)	(-2.351757e+01 1.647217e+03 3.915733e+03)	(-1.568812e+01 -1.252659e-01 -4.625510e-01)
118           	(-3.863508e+01 1.645738e+03 3.913698e+03)	(-2.295621e+01 1.645861e+03 3.914166e+03)	(-1.567887e+01 -1.228237e-01 -4.673359e-01)
119           	(-3.867509e+01 1.646351e+03 3.913916e+03)	(-2.300747e+01 1.646471e+03 3.914389e+03)	(-1.566762e+01 -1.202767e-01 -4.726177e-01)
120           	(-3.879414e+01 1.645393e+03 3.912617e+03)	(-2.313715e+01 1.645510e+03 3.913095e+03)	(-1.565699e+01 -1.176737e-01 -4.773061e-01)
121           	(-3.859117e+01 1.645640e+03 3.913020e+03)	(-2.294631e+01 1.645755e+03 3.913502e+03)	(-1.564485e+01 -1.148877e-01 -4.824419e-01)
122           	(-3.898975e+01 1.645694e+03 3.912709e+03)	(-2.335389e+01 1.645807e+03 3.913194e+03)	(-1.563585e+01 -1.129146e-01 -4.846707e-01)
123           	(-3.889501e+01 1.645435e+03 3.912340e+03)	(-2.326894e+01 1.645547e+03 3.912828e+03)	(-1.562608e+01 -1.111864e-01 -4.877562e-01)
124           	(-3.883211e+01 1.645314e+03 3.912373e+03)	(-2.321566e+01 1.645423e+03 3.912864e+03)	(-1.561645e+01 -1.095145e-01 -4.909210e-01)
125           	(-3.880596e+01 1.645184e+03 3.912542e+03)	(-2.319921e+01 1.645292e+03 3.913036e+03)	(-1.560675e+01 -1.077963e-01 -4.940812e-01)
126           	(-3.881290e+01 1.645048e+03 3.912439e+03)	(-2.321589e+01 1.645154e+03 3.912937e+03)	(-1.559700e+01 -1.060093e-01 -4.972071e-01)
127           	(-3.881618e+01 1.644729e+03 3.912127e+03)	(-2.322926e+01 1.644833e+03 3.912627e+03)	(-1.558692e+01 -1.041710e-01 -5.002673e-01)
128           	(-3.875418e+01 1.644312e+03 3.911731e+03)	(-2.317761e+01 1.644415e+03 3.912234e+03)	(-1.557657e+01 -1.023491e-01 -5.033197e-01)
129           	(-3.852475e+01 1.643236e+03 3.910335e+03)	(-2.295803e+01 1.643337e+03 3.910841e+03)	(-1.556672e+01 -1.005744e-01 -5.062284e-01)
130           	(-3.855282e+01 1.643580e+03 3.910834e+03)	(-2.299646e+01 1.643679e+03 3.911343e+03)	(-1.555636e+01 -9.875007e-02 -5.093954e-01)
131           	(-3.843928e+01 1.643132e+03 3.910370e+03)	(-2.289332e+01 1.643229e+03 3.910883e+03)	(-1.554596e+01 -9.685903e-02 -5.125816e-01)
132           	(-3.820897e+01 1.642043e+03 3.908340e+03)	(-2.267244e+01 1.642138e+03 3.908856e+03)	(-1.553653e+01 -9.492576e-02 -5.156615e-01)
133           	(-3.806031e+01 1.641159e+03 3.908036e+03)	(-2.253385e+01 1.641252e+03 3.908555e+03)	(-1.552646e+01 -9.302301e-02 -5.184632e-01)
134           	(-3.800509e+01 1.640965e+03 3.907715e+03)	(-2.248872e+01 1.641056e+03 3.908236e+03)	(-1.551636e+01 -9.110028e-02 -5.212282e-01)
135           	(-3.809899e+01 1.641286e+03 3.908698e+03)	(-2.259285e+01 1.641375e+03 3.909222e+03)	(-1.550614e+01 -8.924147e-02 -5.237037e-01)
136           	(-3.804780e+01 1.641030e+03 3.908279e+03)	(-2.255199e+01 1.641117e+03 3.908805e+03)	(-1.549581e+01 -8.736893e-02 -5.262047e-01)
137           	(-3.800923e+01 1.640891e+03 3.908312e+03)	(-2.252407e+01 1.640977e+03 3.908841e+03)	(-1.548515e+01 -8.543162e-02 -5.286991e-01)
138           	(-3.796864e+01 1.640838e+03 3.908410e+03)	(-2.249453e+01 1.640922e+03 3.908941e+03)	(-1.547411e+01 -8.341867e-02 -5.312003e-01)
139           	(-3.792906e+01 1.640869e+03 3.908656e+03)	(-2.246652e+01 1.640950e+03 3.909189e+03)	(-1.546255e+01 -8.127894e-02 -5.338139e-01)
140           	(-3.796359e+01 1.641291e+03 3.909276e+03)	(-2.251304e+01 1.641369e+03 3.909812e+03)	(-1.545055e+01 -7.893508e-02 -5.366084e-01)
141           	(-3.775880e+01 1.639769e+03 3.905049e+03)	(-2.231649e+01 1.639846e+03 3.905587e+03)	(-1.544231e+01 -7.660678e-02 -5.387291e-01)
142           	(-3.777057e+01 1.639745e+03 3.905270e+03)	(-2.233776e+01 1.639819e+03 3.905812e+03)	(-1.543281e+01 -7.437648e-02 -5.414321e-01)
143           	(-3.773726e+01 1.639747e+03 3.905430e+03)	(-2.231475e+01 1.639819e+03 3.905975e+03)	(-1.542250e+01 -7.211066e-02 -5.443950e-01)
144           	(-3.770316e+01 1.639801e+03 3.905600e+03)	(-2.229206e+01 1.639870e+03 3.906147e+03)	(-1.541110e+01 -6.977861e-02 -5.476660e-01)
145           	(-3.761221e+01 1.639730e+03 3.905703e+03)	(-2.221331e+01 1.639798e+03 3.906254e+03)	(-1.539890e+01 -6.735388e-02 -5.511136e-01)
146           	(-3.728651e+01 1.638419e+03 3.904764e+03)	(-2.189856e+01 1.638485e+03 3.905318e+03)	(-1.538795e+01 -6.588586e-02 -5.534531e-01)
147           	(-3.723679e+01 1.638616e+03 3.904638e+03)	(-2.186161e+01 1.638681e+03 3.905194e+03)	(-1.537518e+01 -6.409138e-02 -5.564041e-01)
148           	(-3.714277e+01 1.638900e+03 3.905524e+03)	(-2.178145e+01 1.638962e+03 3.906084e+03)	(-1.536133e+01 -6.228669e-02 -5.594478e-01)
149           	(-3.715666e+01 1.639288e+03 3.906456e+03)	(-2.181029e+01 1.639349e+03 3.907019e+03)	(-1.534637e+01 -6.040180e-02 -5.625705e-01)
150           	(-3.704046e+01 1.639848e+03 3.908171e+03)	(-2.171019e+01 1.639906e+03 3.908737e+03)	(-1.533028e+01 -5.845180e-02 -5.656058e-01)
151           	(-3.691322e+01 1.640165e+03 3.909730e+03)	(-2.159701e+01 1.640221e+03 3.910298e+03)	(-1.531622e+01 -5.596316e-02 -5.677131e-01)
152           	(-3.678601e+01 1.639659e+03 3.908606e+03)	(-2.148459e+01 1.639712e+03 3.909176e+03)	(-1.530143e+01 -5.374053e-02 -5.702236e-01)
153           	(-3.673821e+01 1.639317e+03 3.907966e+03)	(-2.145202e+01 1.639368e+03 3.908539e+03)	(-1.528619e+01 -5.146441e-02 -5.728600e-01)
154           	(-3.651583e+01 1.638117e+03 3.905421e+03)	(-2.124423e+01 1.638166e+03 3.905997e+03)	(-1.527160e+01 -4.911468e-02 -5.755441e-01)
155           	(-3.657439e+01 1.638381e+03 3.906098e+03)	(-2.131759e+01 1.638427e+03 3.906676e+03)	(-1.525680e+01 -4.680975e-02 -5.782162e-01)
156           	(-3.648836e+01 1.638139e+03 3.905883e+03)	(-2.124720e+01 1.638183e+03 3.906464e+03)	(-1.524116e+01 -4.440404e-02 -5.809341e-01)
157           	(-3.667158e+01 1.637652e+03 3.902999e+03)	(-2.144045e+01 1.637694e+03 3.903582e+03)	(-1.523112e+01 -4.190792e-02 -5.829198e-01)
158           	(-3.681862e+01 1.638478e+03 3.903905e+03)	(-2.159683e+01 1.638517e+03 3.904490e+03)	(-1.522179e+01 -3.963721e-02 -5.848502e-01)
159           	(-3.651271e+01 1.636599e+03 3.902537e+03)	(-2.129995e+01 1.636637e+03 3.903124e+03)	(-1.521276e+01 -3.773187e-02 -5.865363e-01)
160           	(-3.652947e+01 1.637041e+03 3.902901e+03)	(-2.132620e+01 1.637077e+03 3.903489e+03)	(-1.520327e+01 -3.580476e-02 -5.884299e-01)
161           	(-3.658017e+01 1.637420e+03 3.903408e+03)	(-2.138702e+01 1.637453e+03 3.903998e+03)	(-1.519314e+01 -3.378326e-02 -5.903947e-01)
162           	(-3.652175e+01 1.637357e+03 3.903476e+03)	(-2.133907e+01 1.637388e+03 3.904068e+03)	(-1.518268e+01 -3.179307e-02 -5.923351e-01)
163           	(-3.638911e+01 1.636926e+03 3.903197e+03)	(-2.121687e+01 1.636955e+03 3.903792e+03)	(-1.517223e+01 -2.985046e-02 -5.941904e-01)
164           	(-3.638923e+01 1.637292e+03 3.903628e+03)	(-2.122828e+01 1.637320e+03 3.904224e+03)	(-1.516095e+01 -2.780944e-02 -5.961759e-01)
165           	(-3.627739e+01 1.636940e+03 3.903317e+03)	(-2.112728e+01 1.636966e+03 3.903915e+03)	(-1.515011e+01 -2.593907e-02 -5.980297e-01)
166           	(-3.625517e+01 1.636910e+03 3.903319e+03)	(-2.111623e+01 1.636935e+03 3.903919e+03)	(-1.513894e+01 -2.406588e-02 -5.998770e-01)
167           	(-3.624136e+01 1.636945e+03 3.903416e+03)	(-2.111389e+01 1.636967e+03 3.904018e+03)	(-1.512746e+01 -2.217780e-02 -6.017283e-01)
168           	(-3.609604e+01 1.636482e+03 3.902841e+03)	(-2.097981e+01 1.636502e+03 3.903445e+03)	(-1.511623e+01 -2.045346e-02 -6.034191e-01)
169           	(-3.608591e+01 1.636668e+03 3.903154e+03)	(-2.098135e+01 1.636687e+03 3.903760e+03)	(-1.510456e+01 -1.864539e-02 -6.051403e-01)
170           	(-3.604061e+01 1.636684e+03 3.903338e+03)	(-2.094798e+01 1.636700e+03 3.903944e+03)	(-1.509263e+01 -1.680451e-02 -6.067833e-01)
171           	(-3.602045e+01 1.636746e+03 3.903464e+03)	(-2.094003e+01 1.636761e+03 3.904073e+03)	(-1.508042e+01 -1.494276e-02 -6.083540e-01)
172           	(-3.598546e+01 1.636753e+03 3.903563e+03)	(-2.091753e+01 1.636766e+03 3.904173e+03)	(-1.506793e+01 -1.304925e-02 -6.098257e-01)
173           	(-3.594520e+01 1.636747e+03 3.903660e+03)	(-2.089002e+01 1.636759e+03 3.904271e+03)	(-1.505518e+01 -1.112428e-02 -6.112052e-01)
174           	(-3.584621e+01 1.636409e+03 3.903466e+03)	(-2.080384e+01 1.636419e+03 3.904079e+03)	(-1.504237e+01 -9.254013e-03 -6.124716e-01)
175           	(-3.581973e+01 1.636382e+03 3.902701e+03)	(-2.079135e+01 1.636390e+03 3.903315e+03)	(-1.502838e+01 -7.428824e-03 -6.142903e-01)
176           	(-3.569476e+01 1.635998e+03 3.902479e+03)	(-2.068043e+01 1.636004e+03 3.903095e+03)	(-1.501433e+01 -5.523087e-03 -6.160083e-01)
177           	(-3.547809e+01 1.635334e+03 3.902155e+03)	(-2.047771e+01 1.635338e+03 3.902773e+03)	(-1.500039e+01 -3.694970e-03 -6.174206e-01)
178           	(-3.537186e+01 1.635191e+03 3.901920e+03)	(-2.038371e+01 1.635193e+03 3.902539e+03)	(-1.498815e+01 -2.284174e-03 -6.187102e-01)
179           	(-3.520896e+01 1.634952e+03 3.901639e+03)	(-2.023395e+01 1.634952e+03 3.902259e+03)	(-1.497501e+01 -7.754132e-04 -6.200187e-01)
180           	(-3.521219e+01 1.634864e+03 3.901434e+03)	(-2.025068e+01 1.634863e+03 3.902055e+03)	(-1.496151e+01 7.363415e-04 -6.213261e-01)
181           	(-3.513923e+01 1.634890e+03 3.901748e+03)	(-2.019172e+01 1.634887e+03 3.902371e+03)	(-1.494752e+01 2.352355e-03 -6.226390e-01)
182           	(-3.506212e+01 1.635107e+03 3.902526e+03)	(-2.012915e+01 1.635103e+03 3.903150e+03)	(-1.493297e+01 3.948217e-03 -6.238481e-01)
183           	(-3.497412e+01 1.635286e+03 3.903490e+03)	(-2.005623e+01 1.635280e+03 3.904115e+03)	(-1.491789e+01 5.490715e-03 -6.249061e-01)
184           	(-3.496583e+01 1.635591e+03 3.904354e+03)	(-2.006377e+01 1.635584e+03 3.904979e+03)	(-1.490205e+01 7.037800e-03 -6.258408e-01)
185           	(-3.497062e+01 1.635417e+03 3.904267e+03)	(-2.008513e+01 1.635408e+03 3.904894e+03)	(-1.488549e+01 8.589769e-03 -6.267021e-01)
186           	(-3.488081e+01 1.635284e+03 3.904411e+03)	(-2.001202e+01 1.635273e+03 3.905039e+03)	(-1.486880e+01 1.014231e-02 -6.274027e-01)
187           	(-3.472624e+01 1.634602e+03 3.903591e+03)	(-1.987351e+01 1.634590e+03 3.904219e+03)	(-1.485273e+01 1.168883e-02 -6.280129e-01)
188           	(-3.461017e+01 1.634400e+03 3.904076e+03)	(-1.977402e+01 1.634387e+03 3.904705e+03)	(-1.483614e+01 1.312005e-02 -6.284633e-01)
189           	(-3.451929e+01 1.633978e+03 3.903608e+03)	(-1.969957e+01 1.633964e+03 3.904237e+03)	(-1.481971e+01 1.449089e-02 -6.287569e-01)
190           	(-3.439618e+01 1.633708e+03 3.903842e+03)	(-1.959276e+01 1.633692e+03 3.904471e+03)	(-1.480342e+01 1.583113e-02 -6.289297e-01)
191           	(-3.426035e+01 1.633185e+03 3.903590e+03)	(-1.947269e+01 1.633168e+03 3.904219e+03)	(-1.478766e+01 1.709720e-02 -6.289523e-01)
192           	(-3.413722e+01 1.632642e+03 3.903342e+03)	(-1.936481e+01 1.632623e+03 3.903971e+03)	(-1.477242e+01 1.838479e-02 -6.288620e-01)
193           	(-3.432536e+01 1.633819e+03 3.905089e+03)	(-1.956990e+01 1.633800e+03 3.905718e+03)	(-1.475546e+01 1.979617e-02 -6.287298e-01)
194           	(-3.425132e+01 1.633462e+03 3.904892e+03)	(-1.951313e+01 1.633441e+03 3.905521e+03)	(-1.473819e+01 2.124020e-02 -6.284239e-01)
195           	(-3.419658e+01 1.633220e+03 3.904703e+03)	(-1.947564e+01 1.633197e+03 3.905331e+03)	(-1.472093e+01 2.267517e-02 -6.280308e-01)
196           	(-3.410697e+01 1.632622e+03 3.904559e+03)	(-1.940328e+01 1.632598e+03 3.905186e+03)	(-1.470368e+01 2.405200e-02 -6.273757e-01)
197           	(-3.406431e+01 1.632616e+03 3.904859e+03)	(-1.937828e+01 1.632590e+03 3.905486e+03)	(-1.468604e+01 2.536471e-02 -6.265652e-01)
198           	(-3.393031e+01 1.631667e+03 3.902916e+03)	(-1.925821e+01 1.631640e+03 3.903542e+03)	(-1.467210e+01 2.657094e-02 -6.260134e-01)
199           	(-3.383463e+01 1.631307e+03 3.902821e+03)	(-1.917742e+01 1.631279e+03 3.903446e+03)	(-1.465721e+01 2.766623e-02 -6.254737e-01)
200           	(-3.367156e+01 1.631189e+03 3.903118e+03)	(-1.902874e+01 1.631160e+03 3.903743e+03)	(-1.464282e+01 2.860419e-02 -6.248757e-01)
201           	(-3.328265e+01 1.628904e+03 3.897700e+03)	(-1.865061e+01 1.628874e+03 3.898324e+03)	(-1.463205e+01 2.976057e-02 -6.243948e-01)
202           	(-3.333538e+01 1.629031e+03 3.897901e+03)	(-1.871446e+01 1.629000e+03 3.898525e+03)	(-1.462092e+01 3.078704e-02 -6.240892e-01)
203           	(-3.336643e+01 1.629010e+03 3.897749e+03)	(-1.875677e+01 1.628978e+03 3.898373e+03)	(-1.460966e+01 3.178498e-02 -6.237825e-01)
204           	(-3.340241e+01 1.628883e+03 3.897513e+03)	(-1.880419e+01 1.628851e+03 3.898136e+03)	(-1.459822e+01 3.276633e-02 -6.234651e-01)
205           	(-3.336323e+01 1.628348e+03 3.897764e+03)	(-1.877550e+01 1.628315e+03 3.898387e+03)	(-1.458773e+01 3.353524e-02 -6.229280e-01)
206           	(-3.343837e+01 1.628566e+03 3.898175e+03)	(-1.886114e+01 1.628532e+03 3.898797e+03)	(-1.457723e+01 3.419132e-02 -6.223042e-01)
207           	(-3.345595e+01 1.628579e+03 3.898260e+03)	(-1.888934e+01 1.628544e+03 3.898881e+03)	(-1.456661e+01 3.478878e-02 -6.216615e-01)
208           	(-3.341456e+01 1.628311e+03 3.898231e+03)	(-1.885786e+01 1.628276e+03 3.898852e+03)	(-1.455671e+01 3.528114e-02 -6.210769e-01)
209           	(-3.344891e+01 1.628441e+03 3.898653e+03)	(-1.890174e+01 1.628405e+03 3.899274e+03)	(-1.454717e+01 3.578027e-02 -6.204836e-01)