# Time        	(total_x total_y total_z)	(pressure_x pressure_y pressure_z)	(viscous_x viscous_y viscous_z)
1             	(1.848111e+03 -1.401676e+05 1.018590e+05)	(1.848109e+03 -1.401681e+05 1.018601e+05)	(2.459169e-03 5.126771e-01 -1.070473e+00)
2             	(-5.462654e+02 -1.702234e+03 1.982798e+03)	(-5.462651e+02 -1.702811e+03 1.983966e+03)	(-2.811444e-04 5.764504e-01 -1.167207e+00)
3             	(-5.139651e+02 -8.330476e+02 1.178586e+03)	(-5.139642e+02 -8.336892e+02 1.179807e+03)	(-9.504756e-04 6.416049e-01 -1.221510e+00)
4             	(-5.304989e+02 -5.384131e+02 9.292599e+02)	(-5.304972e+02 -5.391807e+02 9.306082e+02)	(-1.658423e-03 7.676807e-01 -1.348295e+00)
5             	(-5.287054e+02 -3.991154e+02 7.973563e+02)	(-5.287034e+02 -4.000268e+02 7.988776e+02)	(-2.052063e-03 9.113355e-01 -1.521381e+00)
6             	(-5.306472e+02 -2.965376e+02 7.134768e+02)	(-5.306447e+02 -2.975957e+02 7.151981e+02)	(-2.487596e-03 1.058110e+00 -1.721242e+00)
7             	(-5.330279e+02 -2.565847e+02 6.738674e+02)	(-5.330247e+02 -2.577787e+02 6.757888e+02)	(-3.248616e-03 1.193935e+00 -1.921354e+00)
8             	(-5.339032e+02 -2.202079e+02 6.377532e+02)	(-5.338990e+02 -2.215414e+02 6.398667e+02)	(-4.138901e-03 1.333480e+00 -2.113510e+00)
9             	(-5.336083e+02 -1.975521e+02 6.158325e+02)	(-5.336032e+02 -1.990556e+02 6.181743e+02)	(-5.054003e-03 1.503492e+00 -2.341876e+00)
10            	(-5.327507e+02 -1.709761e+02 5.916463e+02)	(-5.327452e+02 -1.726751e+02 5.942596e+02)	(-5.477808e-03 1.698992e+00 -2.613235e+00)
11            	(-5.327132e+02 -1.575651e+02 5.805903e+02)	(-5.327078e+02 -1.594370e+02 5.834434e+02)	(-5.392492e-03 1.871860e+00 -2.853091e+00)
12            	(-5.326473e+02 -1.506266e+02 5.751213e+02)	(-5.326419e+02 -1.526657e+02 5.782161e+02)	(-5.409669e-03 2.039085e+00 -3.094813e+00)
13            	(-5.326322e+02 -1.447776e+02 5.686700e+02)	(-5.326269e+02 -1.469609e+02 5.719817e+02)	(-5.215544e-03 2.183306e+00 -3.311672e+00)
14            	(-5.320936e+02 -1.477315e+02 5.682175e+02)	(-5.320892e+02 -1.500112e+02 5.716851e+02)	(-4.383007e-03 2.279715e+00 -3.467644e+00)
15            	(-5.327925e+02 -1.404086e+02 5.651537e+02)	(-5.327890e+02 -1.427943e+02 5.688022e+02)	(-3.450477e-03 2.385765e+00 -3.648494e+00)
16            	(-5.326102e+02 -1.446259e+02 5.685457e+02)	(-5.326077e+02 -1.471032e+02 5.723413e+02)	(-2.413561e-03 2.477293e+00 -3.795581e+00)
17            	(-5.319269e+02 -1.445811e+02 5.678094e+02)	(-5.319257e+02 -1.471387e+02 5.717518e+02)	(-1.109564e-03 2.557610e+00 -3.942425e+00)
18            	(-5.316780e+02 -1.482357e+02 5.718353e+02)	(-5.316781e+02 -1.508553e+02 5.759067e+02)	(1.092739e-04 2.619591e+00 -4.071348e+00)
19            	(-5.310996e+02 -1.539648e+02 5.755027e+02)	(-5.311009e+02 -1.566219e+02 5.796562e+02)	(1.285444e-03 2.657104e+00 -4.153471e+00)
20            	(-5.313876e+02 -1.554351e+02 5.773365e+02)	(-5.313906e+02 -1.581329e+02 5.815924e+02)	(2.974180e-03 2.697801e+00 -4.255902e+00)
21            	(-5.311302e+02 -1.594485e+02 5.793864e+02)	(-5.311351e+02 -1.621818e+02 5.837422e+02)	(4.918794e-03 2.733298e+00 -4.355862e+00)
22            	(-5.303888e+02 -1.630605e+02 5.797939e+02)	(-5.303957e+02 -1.658267e+02 5.842443e+02)	(6.905828e-03 2.766183e+00 -4.450440e+00)
23            	(-5.305255e+02 -1.594032e+02 5.756931e+02)	(-5.305351e+02 -1.621883e+02 5.802084e+02)	(9.609716e-03 2.785067e+00 -4.515253e+00)
24            	(-5.294283e+02 -1.721475e+02 5.829696e+02)	(-5.294413e+02 -1.749579e+02 5.875570e+02)	(1.303080e-02 2.810340e+00 -4.587400e+00)
25            	(-5.288131e+02 -1.718752e+02 5.840099e+02)	(-5.288281e+02 -1.746991e+02 5.886465e+02)	(1.495947e-02 2.823913e+00 -4.636610e+00)
26            	(-5.291817e+02 -1.669746e+02 5.806004e+02)	(-5.291994e+02 -1.698090e+02 5.852865e+02)	(1.767341e-02 2.834372e+00 -4.686133e+00)
27            	(-5.293401e+02 -1.680793e+02 5.800934e+02)	(-5.293609e+02 -1.709225e+02 5.848225e+02)	(2.082102e-02 2.843229e+00 -4.729074e+00)
28            	(-5.288137e+02 -1.717266e+02 5.811631e+02)	(-5.288358e+02 -1.745992e+02 5.859478e+02)	(2.218839e-02 2.872614e+00 -4.784775e+00)
29            	(-5.282834e+02 -1.663097e+02 5.783074e+02)	(-5.283079e+02 -1.692020e+02 5.831360e+02)	(2.453106e-02 2.892245e+00 -4.828636e+00)
30            	(-5.290110e+02 -1.727091e+02 5.837557e+02)	(-5.290385e+02 -1.756160e+02 5.886245e+02)	(2.753063e-02 2.906920e+00 -4.868783e+00)
31            	(-5.279311e+02 -1.901084e+02 5.927563e+02)	(-5.279616e+02 -1.930219e+02 5.976516e+02)	(3.055869e-02 2.913497e+00 -4.895289e+00)
32            	(-5.285787e+02 -1.775541e+02 5.853548e+02)	(-5.286122e+02 -1.804673e+02 5.902636e+02)	(3.350154e-02 2.913209e+00 -4.908803e+00)
33            	(-5.282621e+02 -1.764265e+02 5.843352e+02)	(-5.282985e+02 -1.793406e+02 5.892571e+02)	(3.639912e-02 2.914086e+00 -4.921858e+00)
34            	(-5.273692e+02 -1.715626e+02 5.804554e+02)	(-5.274094e+02 -1.744842e+02 5.854003e+02)	(4.025147e-02 2.921606e+00 -4.944892e+00)
35            	(-5.274500e+02 -1.719737e+02 5.810461e+02)	(-5.274938e+02 -1.749036e+02 5.860114e+02)	(4.386329e-02 2.929960e+00 -4.965286e+00)
36            	(-5.268574e+02 -1.834693e+02 5.866429e+02)	(-5.269038e+02 -1.864158e+02 5.916436e+02)	(4.638117e-02 2.946467e+00 -5.000699e+00)
37            	(-5.267447e+02 -1.806080e+02 5.851481e+02)	(-5.267941e+02 -1.835665e+02 5.901753e+02)	(4.939838e-02 2.958536e+00 -5.027197e+00)
38            	(-5.270295e+02 -1.766932e+02 5.845820e+02)	(-5.270819e+02 -1.796576e+02 5.896222e+02)	(5.231915e-02 2.964460e+00 -5.040198e+00)
39            	(-5.269792e+02 -1.810822e+02 5.873336e+02)	(-5.270345e+02 -1.840503e+02 5.923787e+02)	(5.533661e-02 2.968132e+00 -5.045178e+00)
40            	(-5.266659e+02 -1.751073e+02 5.852885e+02)	(-5.267240e+02 -1.780783e+02 5.903340e+02)	(5.809091e-02 2.971034e+00 -5.045433e+00)
41            	(-5.263894e+02 -1.772375e+02 5.850493e+02)	(-5.264502e+02 -1.802203e+02 5.901102e+02)	(6.074364e-02 2.982730e+00 -5.060857e+00)
42            	(-5.262752e+02 -1.775098e+02 5.876434e+02)	(-5.263385e+02 -1.805017e+02 5.927145e+02)	(6.335585e-02 2.991830e+00 -5.071084e+00)
43            	(-5.264356e+02 -1.784610e+02 5.871424e+02)	(-5.265017e+02 -1.814599e+02 5.922139e+02)	(6.608194e-02 2.998833e+00 -5.071573e+00)
44            	(-5.260526e+02 -1.801403e+02 5.903539e+02)	(-5.261212e+02 -1.831460e+02 5.954253e+02)	(6.854397e-02 3.005670e+00 -5.071458e+00)
45            	(-5.260625e+02 -1.798292e+02 5.894645e+02)	(-5.261335e+02 -1.828419e+02 5.945338e+02)	(7.098393e-02 3.012661e+00 -5.069314e+00)
46            	(-5.257782e+02 -1.800393e+02 5.912320e+02)	(-5.258514e+02 -1.830606e+02 5.963025e+02)	(7.319276e-02 3.021328e+00 -5.070490e+00)
47            	(-5.253197e+02 -1.832442e+02 5.921230e+02)	(-5.253950e+02 -1.862780e+02 5.972066e+02)	(7.524447e-02 3.033735e+00 -5.083537e+00)
48            	(-5.254217e+02 -1.828212e+02 5.939879e+02)	(-5.254990e+02 -1.858658e+02 5.990805e+02)	(7.730244e-02 3.044587e+00 -5.092674e+00)
49            	(-5.254682e+02 -1.841965e+02 5.945024e+02)	(-5.255475e+02 -1.872507e+02 5.995988e+02)	(7.932916e-02 3.054158e+00 -5.096334e+00)
50            	(-5.252476e+02 -1.857950e+02 5.960957e+02)	(-5.253288e+02 -1.888583e+02 6.011934e+02)	(8.125049e-02 3.063341e+00 -5.097677e+00)
51            	(-5.251276e+02 -1.868479e+02 5.969966e+02)	(-5.252107e+02 -1.899208e+02 6.020955e+02)	(8.308392e-02 3.072859e+00 -5.098859e+00)
52            	(-5.249452e+02 -1.886605e+02 5.982364e+02)	(-5.250300e+02 -1.917434e+02 6.033366e+02)	(8.480453e-02 3.082843e+00 -5.100161e+00)
53            	(-5.248256e+02 -1.873547e+02 5.976105e+02)	(-5.249121e+02 -1.904469e+02 6.027100e+02)	(8.646004e-02 3.092144e+00 -5.099570e+00)
54            	(-5.244919e+02 -1.882320e+02 5.983428e+02)	(-5.245799e+02 -1.913313e+02 6.034387e+02)	(8.800774e-02 3.099295e+00 -5.095846e+00)
55            	(-5.240414e+02 -1.950221e+02 6.021962e+02)	(-5.241310e+02 -1.981262e+02 6.072869e+02)	(8.956725e-02 3.104130e+00 -5.090704e+00)
56            	(-5.239584e+02 -1.932703e+02 6.011544e+02)	(-5.240494e+02 -1.963806e+02 6.062413e+02)	(9.101199e-02 3.110284e+00 -5.086978e+00)
57            	(-5.239335e+02 -1.933716e+02 6.014705e+02)	(-5.240260e+02 -1.964885e+02 6.065540e+02)	(9.246752e-02 3.116977e+00 -5.083543e+00)
58            	(-5.239012e+02 -1.923423e+02 6.008556e+02)	(-5.239950e+02 -1.954667e+02 6.059365e+02)	(9.384982e-02 3.124461e+00 -5.080903e+00)
59            	(-5.237737e+02 -1.932746e+02 6.015026e+02)	(-5.238690e+02 -1.964072e+02 6.065817e+02)	(9.521684e-02 3.132638e+00 -5.079059e+00)
60            	(-5.236852e+02 -1.938926e+02 6.020425e+02)	(-5.237817e+02 -1.970339e+02 6.071200e+02)	(9.657429e-02 3.141254e+00 -5.077585e+00)
61            	(-5.235625e+02 -1.944589e+02 6.022687e+02)	(-5.236605e+02 -1.976096e+02 6.073452e+02)	(9.799607e-02 3.150747e+00 -5.076533e+00)
62            	(-5.234462e+02 -1.936087e+02 6.016976e+02)	(-5.235457e+02 -1.967699e+02 6.067732e+02)	(9.950214e-02 3.161143e+00 -5.075580e+00)
63            	(-5.235135e+02 -1.944795e+02 6.018594e+02)	(-5.236145e+02 -1.976535e+02 6.069399e+02)	(1.010138e-01 3.173991e+00 -5.080466e+00)
64            	(-5.231955e+02 -1.953455e+02 6.021265e+02)	(-5.232983e+02 -1.985330e+02 6.072097e+02)	(1.027912e-01 3.187578e+00 -5.083161e+00)
65            	(-5.230044e+02 -1.990709e+02 6.041381e+02)	(-5.231092e+02 -2.022719e+02 6.092227e+02)	(1.048311e-01 3.201089e+00 -5.084523e+00)
66            	(-5.229765e+02 -1.963219e+02 6.023875e+02)	(-5.230833e+02 -1.995373e+02 6.074727e+02)	(1.068223e-01 3.215445e+00 -5.085262e+00)
67            	(-5.229983e+02 -1.957695e+02 6.018749e+02)	(-5.231071e+02 -1.990001e+02 6.069618e+02)	(1.087370e-01 3.230627e+00 -5.086889e+00)
68            	(-5.228839e+02 -1.959192e+02 6.017272e+02)	(-5.229945e+02 -1.991650e+02 6.068150e+02)	(1.106567e-01 3.245816e+00 -5.087778e+00)
69            	(-5.228032e+02 -1.952856e+02 6.011943e+02)	(-5.229157e+02 -1.985469e+02 6.062825e+02)	(1.125239e-01 3.261333e+00 -5.088124e+00)
70            	(-5.225661e+02 -1.998311e+02 6.038735e+02)	(-5.226805e+02 -2.031072e+02 6.089625e+02)	(1.143849e-01 3.276042e+00 -5.088941e+00)
71            	(-5.226776e+02 -1.971114e+02 6.020053e+02)	(-5.227938e+02 -2.004028e+02 6.070955e+02)	(1.161737e-01 3.291437e+00 -5.090203e+00)
72            	(-5.224919e+02 -2.010928e+02 6.036045e+02)	(-5.226098e+02 -2.043997e+02 6.086952e+02)	(1.179304e-01 3.306902e+00 -5.090777e+00)
73            	(-5.225397e+02 -1.957411e+02 6.012531e+02)	(-5.226594e+02 -1.990637e+02 6.063438e+02)	(1.196096e-01 3.322618e+00 -5.090668e+00)
74            	(-5.224690e+02 -1.962712e+02 6.016173e+02)	(-5.225902e+02 -1.996100e+02 6.067076e+02)	(1.212170e-01 3.338802e+00 -5.090310e+00)
75            	(-5.224302e+02 -1.961014e+02 6.013539e+02)	(-5.225530e+02 -1.994565e+02 6.064438e+02)	(1.227854e-01 3.355117e+00 -5.089938e+00)
76            	(-5.223652e+02 -1.967605e+02 6.016859e+02)	(-5.224896e+02 -2.001321e+02 6.067752e+02)	(1.243189e-01 3.371526e+00 -5.089317e+00)
77            	(-5.222755e+02 -1.995399e+02 6.025468e+02)	(-5.224014e+02 -2.029273e+02 6.076351e+02)	(1.258593e-01 3.387418e+00 -5.088392e+00)
78            	(-5.221434e+02 -2.009346e+02 6.026114e+02)	(-5.222708e+02 -2.043378e+02 6.076986e+02)	(1.273638e-01 3.403193e+00 -5.087192e+00)
79            	(-5.220567e+02 -2.015139e+02 6.026552e+02)	(-5.221855e+02 -2.049324e+02 6.077410e+02)	(1.288080e-01 3.418500e+00 -5.085789e+00)
80            	(-5.219894e+02 -2.010513e+02 6.024273e+02)	(-5.221196e+02 -2.044845e+02 6.075112e+02)	(1.301988e-01 3.433241e+00 -5.083934e+00)
81            	(-5.217247e+02 -2.014400e+02 6.023088e+02)	(-5.218563e+02 -2.048864e+02 6.073898e+02)	(1.315887e-01 3.446423e+00 -5.081082e+00)
82            	(-5.215721e+02 -2.041433e+02 6.035227e+02)	(-5.217051e+02 -2.076015e+02 6.086004e+02)	(1.329874e-01 3.458200e+00 -5.077676e+00)
83            	(-5.214639e+02 -2.041937e+02 6.031851e+02)	(-5.215983e+02 -2.076638e+02 6.082596e+02)	(1.343451e-01 3.470062e+00 -5.074495e+00)
84            	(-5.221584e+02 -1.943989e+02 6.022814e+02)	(-5.222944e+02 -1.978823e+02 6.073519e+02)	(1.359675e-01 3.483398e+00 -5.070524e+00)
85            	(-5.223442e+02 -1.985135e+02 6.032089e+02)	(-5.224821e+02 -2.020123e+02 6.082768e+02)	(1.378677e-01 3.498762e+00 -5.067861e+00)
86            	(-5.220253e+02 -1.993238e+02 6.034177e+02)	(-5.221649e+02 -2.028378e+02 6.084823e+02)	(1.396567e-01 3.513940e+00 -5.064513e+00)
87            	(-5.220581e+02 -2.001960e+02 6.036081e+02)	(-5.221995e+02 -2.037249e+02 6.086689e+02)	(1.414533e-01 3.528890e+00 -5.060732e+00)
88            	(-5.220784e+02 -2.004374e+02 6.037671e+02)	(-5.222217e+02 -2.039812e+02 6.088238e+02)	(1.433085e-01 3.543815e+00 -5.056727e+00)
89            	(-5.219893e+02 -2.000789e+02 6.037600e+02)	(-5.221345e+02 -2.036371e+02 6.088122e+02)	(1.451383e-01 3.558117e+00 -5.052216e+00)
90            	(-5.220563e+02 -2.005876e+02 6.037697e+02)	(-5.222032e+02 -2.041590e+02 6.088167e+02)	(1.468717e-01 3.571413e+00 -5.047004e+00)
91            	(-5.220231e+02 -2.006178e+02 6.036314e+02)	(-5.221715e+02 -2.042040e+02 6.086750e+02)	(1.484554e-01 3.586121e+00 -5.043544e+00)
92            	(-5.218986e+02 -1.996110e+02 6.033251e+02)	(-5.220490e+02 -2.032141e+02 6.083644e+02)	(1.503566e-01 3.603099e+00 -5.039340e+00)
93            	(-5.220869e+02 -2.008943e+02 6.036383e+02)	(-5.222392e+02 -2.045142e+02 6.086722e+02)	(1.523613e-01 3.619914e+00 -5.033879e+00)
94            	(-5.217980e+02 -2.001833e+02 6.034216e+02)	(-5.219523e+02 -2.038193e+02 6.084495e+02)	(1.542672e-01 3.636070e+00 -5.027923e+00)
95            	(-5.212168e+02 -2.019259e+02 6.012993e+02)	(-5.213716e+02 -2.055686e+02 6.063245e+02)	(1.548604e-01 3.642738e+00 -5.025162e+00)
96            	(-5.214932e+02 -2.013774e+02 6.018092e+02)	(-5.216490e+02 -2.050287e+02 6.068311e+02)	(1.557297e-01 3.651285e+00 -5.021908e+00)
97            	(-5.213005e+02 -2.034708e+02 6.026587e+02)	(-5.214569e+02 -2.071288e+02 6.076779e+02)	(1.563842e-01 3.658062e+00 -5.019217e+00)
98            	(-5.213267e+02 -2.035499e+02 6.028011e+02)	(-5.214837e+02 -2.072149e+02 6.078176e+02)	(1.570896e-01 3.664990e+00 -5.016560e+00)
99            	(-5.213051e+02 -2.035607e+02 6.028557e+02)	(-5.214629e+02 -2.072326e+02 6.078695e+02)	(1.578149e-01 3.671921e+00 -5.013770e+00)
100           	(-5.213550e+02 -2.027339e+02 6.027866e+02)	(-5.215136e+02 -2.064128e+02 6.077975e+02)	(1.585593e-01 3.678859e+00 -5.010846e+00)
101           	(-5.213634e+02 -2.021371e+02 6.026008e+02)	(-5.215227e+02 -2.058228e+02 6.076086e+02)	(1.593053e-01 3.685777e+00 -5.007772e+00)
102           	(-5.213529e+02 -2.024097e+02 6.026554e+02)	(-5.215130e+02 -2.061024e+02 6.076600e+02)	(1.600668e-01 3.692739e+00 -5.004564e+00)
103           	(-5.213235e+02 -2.032612e+02 6.029310e+02)	(-5.214844e+02 -2.069609e+02 6.079322e+02)	(1.608371e-01 3.699728e+00 -5.001211e+00)
104           	(-5.213047e+02 -2.032971e+02 6.025720e+02)	(-5.214663e+02 -2.070038e+02 6.075700e+02)	(1.616128e-01 3.706703e+00 -4.997989e+00)
105           	(-5.213057e+02 -2.027110e+02 6.017325e+02)	(-5.214681e+02 -2.064240e+02 6.067263e+02)	(1.623945e-01 3.713009e+00 -4.993850e+00)
106           	(-5.212579e+02 -2.028430e+02 6.023457e+02)	(-5.214210e+02 -2.065624e+02 6.073355e+02)	(1.631751e-01 3.719418e+00 -4.989774e+00)
107           	(-5.211845e+02 -2.025329e+02 6.018790e+02)	(-5.213484e+02 -2.062588e+02 6.068645e+02)	(1.639614e-01 3.725895e+00 -4.985477e+00)
108           	(-5.211586e+02 -2.023001e+02 6.014844e+02)	(-5.213234e+02 -2.060327e+02 6.064653e+02)	(1.647634e-01 3.732538e+00 -4.980875e+00)
109           	(-5.211248e+02 -2.007724e+02 6.004019e+02)	(-5.212904e+02 -2.045119e+02 6.053779e+02)	(1.655681e-01 3.739430e+00 -4.975975e+00)
110           	(-5.210929e+02 -1.991679e+02 5.993635e+02)	(-5.212592e+02 -2.029143e+02 6.043341e+02)	(1.663494e-01 3.746399e+00 -4.970643e+00)
111           	(-5.210812e+02 -1.981185e+02 5.986191e+02)	(-5.212483e+02 -2.018720e+02 6.035843e+02)	(1.671103e-01 3.753514e+00 -4.965284e+00)
112           	(-5.210685e+02 -1.984694e+02 5.984016e+02)	(-5.212364e+02 -2.022297e+02 6.033612e+02)	(1.678929e-01 3.760299e+00 -4.959650e+00)
113           	(-5.209504e+02 -1.990552e+02 5.982358e+02)	(-5.211191e+02 -2.028216e+02 6.031898e+02)	(1.687101e-01 3.766373e+00 -4.954017e+00)
114           	(-5.210773e+02 -1.966988e+02 5.974894e+02)	(-5.212468e+02 -2.004711e+02 6.024382e+02)	(1.695438e-01 3.772268e+00 -4.948869e+00)
115           	(-5.212324e+02 -1.943476e+02 5.964677e+02)	(-5.214028e+02 -1.981257e+02 6.014113e+02)	(1.703916e-01 3.778113e+00 -4.943508e+00)
116           	(-5.212682e+02 -1.931138e+02 5.965912e+02)	(-5.214395e+02 -1.968986e+02 6.015289e+02)	(1.713047e-01 3.784858e+00 -4.937755e+00)
117           	(-5.212275e+02 -1.943293e+02 5.969074e+02)	(-5.213998e+02 -1.981215e+02 6.018387e+02)	(1.723018e-01 3.792166e+00 -4.931254e+00)
118           	(-5.210417e+02 -1.858705e+02 5.933191e+02)	(-5.212149e+02 -1.896700e+02 5.982438e+02)	(1.732507e-01 3.799488e+00 -4.924653e+00)
119           	(-5.209460e+02 -1.897483e+02 5.933205e+02)	(-5.211203e+02 -1.935554e+02 5.982376e+02)	(1.743195e-01 3.807022e+00 -4.917071e+00)
120           	(-5.207364e+02 -1.926059e+02 5.940118e+02)	(-5.209117e+02 -1.964196e+02 5.989218e+02)	(1.753392e-01 3.813701e+00 -4.910039e+00)
121           	(-5.207435e+02 -1.905978e+02 5.926717e+02)	(-5.209200e+02 -1.944186e+02 5.975739e+02)	(1.764473e-01 3.820821e+00 -4.902201e+00)
122           	(-5.207481e+02 -1.978018e+02 5.948805e+02)	(-5.209250e+02 -2.016255e+02 5.997780e+02)	(1.768690e-01 3.823683e+00 -4.897476e+00)
123           	(-5.206437e+02 -1.965302e+02 5.942139e+02)	(-5.208211e+02 -2.003574e+02 5.991061e+02)	(1.774705e-01 3.827267e+00 -4.892217e+00)
124           	(-5.206360e+02 -1.961601e+02 5.938327e+02)	(-5.208141e+02 -1.999909e+02 5.987196e+02)	(1.780753e-01 3.830888e+00 -4.886946e+00)
125           	(-5.206636e+02 -1.957846e+02 5.937024e+02)	(-5.208423e+02 -1.996193e+02 5.985839e+02)	(1.786679e-01 3.834675e+00 -4.881567e+00)
126           	(-5.206674e+02 -1.957170e+02 5.937117e+02)	(-5.208466e+02 -1.995557e+02 5.985878e+02)	(1.792440e-01 3.838646e+00 -4.876072e+00)
127           	(-5.206434e+02 -1.957518e+02 5.936285e+02)	(-5.208232e+02 -1.995945e+02 5.984989e+02)	(1.797999e-01 3.842698e+00 -4.870393e+00)
128           	(-5.205941e+02 -1.950172e+02 5.930956e+02)	(-5.207744e+02 -1.988640e+02 5.979603e+02)	(1.803561e-01 3.846792e+00 -4.864656e+00)
129           	(-5.203906e+02 -1.926671e+02 5.910992e+02)	(-5.205715e+02 -1.965177e+02 5.959584e+02)	(1.808770e-01 3.850587e+00 -4.859195e+00)
130           	(-5.204261e+02 -1.931997e+02 5.917235e+02)	(-5.206075e+02 -1.970546e+02 5.965770e+02)	(1.814317e-01 3.854888e+00 -4.853444e+00)
131           	(-5.203411e+02 -1.920472e+02 5.909136e+02)	(-5.205231e+02 -1.959065e+02 5.957612e+02)	(1.819765e-01 3.859307e+00 -4.847507e+00)
132           	(-5.200235e+02 -1.891763e+02 5.893180e+02)	(-5.202060e+02 -1.930399e+02 5.941597e+02)	(1.824821e-01 3.863659e+00 -4.841722e+00)
133           	(-5.200849e+02 -1.879729e+02 5.869035e+02)	(-5.202679e+02 -1.918400e+02 5.917394e+02)	(1.829647e-01 3.867174e+00 -4.835898e+00)
134           	(-5.200149e+02 -1.875771e+02 5.864446e+02)	(-5.201983e+02 -1.914476e+02 5.912747e+02)	(1.834454e-01 3.870549e+00 -4.830062e+00)
135           	(-5.201557e+02 -1.888718e+02 5.866123e+02)	(-5.203396e+02 -1.927449e+02 5.914366e+02)	(1.838910e-01 3.873182e+00 -4.824308e+00)
136           	(-5.200840e+02 -1.883654e+02 5.861335e+02)	(-5.202683e+02 -1.922412e+02 5.909520e+02)	(1.843367e-01 3.875822e+00 -4.818471e+00)
137           	(-5.200711e+02 -1.882322e+02 5.857540e+02)	(-5.202559e+02 -1.921106e+02 5.905665e+02)	(1.847741e-01 3.878381e+00 -4.812409e+00)
138           	(-5.200669e+02 -1.879193e+02 5.854930e+02)	(-5.202521e+02 -1.918002e+02 5.902990e+02)	(1.851968e-01 3.880914e+00 -4.806064e+00)
139           	(-5.200700e+02 -1.876480e+02 5.854164e+02)	(-5.202556e+02 -1.915317e+02 5.902157e+02)	(1.856282e-01 3.883720e+00 -4.799245e+00)
140           	(-5.201168e+02 -1.881332e+02 5.859618e+02)	(-5.203029e+02 -1.920201e+02 5.907536e+02)	(1.860882e-01 3.886891e+00 -4.791842e+00)
141           	(-5.194320e+02 -1.856207e+02 5.845775e+02)	(-5.196185e+02 -1.895103e+02 5.893636e+02)	(1.864392e-01 3.889655e+00 -4.786155e+00)
142           	(-5.195192e+02 -1.858077e+02 5.844733e+02)	(-5.197061e+02 -1.897005e+02 5.892531e+02)	(1.869178e-01 3.892760e+00 -4.779746e+00)
143           	(-5.195142e+02 -1.856874e+02 5.843015e+02)	(-5.197017e+02 -1.895834e+02 5.890743e+02)	(1.874514e-01 3.896017e+00 -4.772755e+00)
144           	(-5.195357e+02 -1.853964e+02 5.840838e+02)	(-5.197238e+02 -1.892959e+02 5.888489e+02)	(1.880637e-01 3.899522e+00 -4.765130e+00)
145           	(-5.195301e+02 -1.845552e+02 5.834760e+02)	(-5.197188e+02 -1.884583e+02 5.882330e+02)	(1.887251e-01 3.903115e+00 -4.757044e+00)
146           	(-5.195320e+02 -1.814589e+02 5.801036e+02)	(-5.197212e+02 -1.853630e+02 5.848547e+02)	(1.891381e-01 3.904120e+00 -4.751100e+00)
147           	(-5.194633e+02 -1.803655e+02 5.800598e+02)	(-5.196530e+02 -1.842715e+02 5.848037e+02)	(1.896738e-01 3.906012e+00 -4.743838e+00)
148           	(-5.195746e+02 -1.794842e+02 5.794556e+02)	(-5.197648e+02 -1.833920e+02 5.841917e+02)	(1.902246e-01 3.907785e+00 -4.736082e+00)
149           	(-5.196953e+02 -1.800363e+02 5.796675e+02)	(-5.198861e+02 -1.839459e+02 5.843954e+02)	(1.907832e-01 3.909610e+00 -4.727920e+00)
150           	(-5.199240e+02 -1.792853e+02 5.790715e+02)	(-5.201153e+02 -1.831968e+02 5.837908e+02)	(1.913190e-01 3.911465e+00 -4.719307e+00)
151           	(-5.200807e+02 -1.778006e+02 5.784015e+02)	(-5.202723e+02 -1.817159e+02 5.831132e+02)	(1.916713e-01 3.915274e+00 -4.711624e+00)
152           	(-5.198823e+02 -1.770076e+02 5.774348e+02)	(-5.200743e+02 -1.809257e+02 5.821381e+02)	(1.920593e-01 3.918147e+00 -4.703293e+00)
153           	(-5.197842e+02 -1.766421e+02 5.771803e+02)	(-5.199767e+02 -1.805632e+02 5.818750e+02)	(1.924822e-01 3.921099e+00 -4.694688e+00)
154           	(-5.193616e+02 -1.741842e+02 5.757349e+02)	(-5.195545e+02 -1.781083e+02 5.804210e+02)	(1.929271e-01 3.924062e+00 -4.686130e+00)
155           	(-5.194344e+02 -1.753092e+02 5.762692e+02)	(-5.196278e+02 -1.792360e+02 5.809467e+02)	(1.933627e-01 3.926767e+00 -4.677537e+00)
156           	(-5.193411e+02 -1.747203e+02 5.759278e+02)	(-5.195349e+02 -1.786498e+02 5.805962e+02)	(1.937745e-01 3.929519e+00 -4.668391e+00)
157           	(-5.187366e+02 -1.775313e+02 5.783603e+02)	(-5.189307e+02 -1.814633e+02 5.830220e+02)	(1.940696e-01 3.931925e+00 -4.661622e+00)
158           	(-5.188214e+02 -1.792928e+02 5.801145e+02)	(-5.190158e+02 -1.832270e+02 5.847699e+02)	(1.943396e-01 3.934203e+00 -4.655434e+00)
159           	(-5.188869e+02 -1.754977e+02 5.752376e+02)	(-5.190815e+02 -1.794332e+02 5.798875e+02)	(1.946241e-01 3.935455e+00 -4.649941e+00)
160           	(-5.188702e+02 -1.759508e+02 5.761702e+02)	(-5.190651e+02 -1.798878e+02 5.808144e+02)	(1.949259e-01 3.937013e+00 -4.644180e+00)
161           	(-5.189213e+02 -1.766266e+02 5.767531e+02)	(-5.191165e+02 -1.805652e+02 5.813910e+02)	(1.952214e-01 3.938650e+00 -4.637975e+00)
162           	(-5.189171e+02 -1.763335e+02 5.763272e+02)	(-5.191126e+02 -1.802737e+02 5.809589e+02)	(1.955106e-01 3.940189e+00 -4.631659e+00)
163           	(-5.189078e+02 -1.750341e+02 5.749503e+02)	(-5.191036e+02 -1.789756e+02 5.795757e+02)	(1.957895e-01 3.941462e+00 -4.625399e+00)
164           	(-5.189148e+02 -1.752110e+02 5.755409e+02)	(-5.191109e+02 -1.791540e+02 5.801596e+02)	(1.960819e-01 3.943076e+00 -4.618656e+00)
165           	(-5.189133e+02 -1.741500e+02 5.745033e+02)	(-5.191096e+02 -1.780944e+02 5.791157e+02)	(1.963614e-01 3.944355e+00 -4.612369e+00)
166           	(-5.189033e+02 -1.740110e+02 5.744702e+02)	(-5.190999e+02 -1.779566e+02 5.790761e+02)	(1.966311e-01 3.945653e+00 -4.605913e+00)
167           	(-5.189018e+02 -1.740198e+02 5.745395e+02)	(-5.190987e+02 -1.779668e+02 5.791388e+02)	(1.968959e-01 3.947014e+00 -4.599257e+00)
168           	(-5.188546e+02 -1.724471e+02 5.734400e+02)	(-5.190517e+02 -1.763952e+02 5.780328e+02)	(1.971187e-01 3.948115e+00 -4.592884e+00)
169           	(-5.188820e+02 -1.724469e+02 5.735260e+02)	(-5.190793e+02 -1.763962e+02 5.781121e+02)	(1.973341e-01 3.949344e+00 -4.586138e+00)
170           	(-5.188925e+02 -1.722662e+02 5.733047e+02)	(-5.190900e+02 -1.762167e+02 5.778839e+02)	(1.975171e-01 3.950472e+00 -4.579188e+00)
171           	(-5.189018e+02 -1.721728e+02 5.733071e+02)	(-5.190995e+02 -1.761243e+02 5.778792e+02)	(1.976716e-01 3.951515e+00 -4.572104e+00)
172           	(-5.189059e+02 -1.719511e+02 5.731778e+02)	(-5.191036e+02 -1.759035e+02 5.777426e+02)	(1.977869e-01 3.952395e+00 -4.564849e+00)
173           	(-5.189165e+02 -1.716747e+02 5.729826e+02)	(-5.191143e+02 -1.756279e+02 5.775400e+02)	(1.978707e-01 3.953132e+00 -4.557449e+00)
174           	(-5.189109e+02 -1.707930e+02 5.720784e+02)	(-5.191088e+02 -1.747467e+02 5.766286e+02)	(1.979358e-01 3.953669e+00 -4.550173e+00)
175           	(-5.186806e+02 -1.711731e+02 5.721947e+02)	(-5.188786e+02 -1.751263e+02 5.767370e+02)	(1.980337e-01 3.953146e+00 -4.542248e+00)
176           	(-5.186281e+02 -1.697909e+02 5.713198e+02)	(-5.188262e+02 -1.737435e+02 5.758543e+02)	(1.981380e-01 3.952606e+00 -4.534495e+00)
177           	(-5.186445e+02 -1.673736e+02 5.690480e+02)	(-5.188427e+02 -1.713253e+02 5.735754e+02)	(1.982250e-01 3.951749e+00 -4.527357e+00)
178           	(-5.186174e+02 -1.668099e+02 5.685608e+02)	(-5.188157e+02 -1.707606e+02 5.730825e+02)	(1.983167e-01 3.950766e+00 -4.521637e+00)
179           	(-5.185871e+02 -1.649129e+02 5.673023e+02)	(-5.187855e+02 -1.688629e+02 5.718179e+02)	(1.983970e-01 3.949951e+00 -4.515527e+00)
180           	(-5.185178e+02 -1.655161e+02 5.673350e+02)	(-5.187162e+02 -1.694653e+02 5.718443e+02)	(1.984810e-01 3.949175e+00 -4.509342e+00)
181           	(-5.185404e+02 -1.651196e+02 5.670229e+02)	(-5.187389e+02 -1.690681e+02 5.715258e+02)	(1.985615e-01 3.948544e+00 -4.502885e+00)
182           	(-5.186498e+02 -1.645851e+02 5.666727e+02)	(-5.188484e+02 -1.685331e+02 5.711690e+02)	(1.986041e-01 3.947961e+00 -4.496236e+00)
183           	(-5.187965e+02 -1.641002e+02 5.661864e+02)	(-5.189950e+02 -1.680476e+02 5.706759e+02)	(1.985933e-01 3.947419e+00 -4.489425e+00)
184           	(-5.189116e+02 -1.644636e+02 5.664385e+02)	(-5.191101e+02 -1.684105e+02 5.709207e+02)	(1.985252e-01 3.946882e+00 -4.482260e+00)
185           	(-5.188696e+02 -1.651769e+02 5.664023e+02)	(-5.190680e+02 -1.691230e+02 5.708771e+02)	(1.984037e-01 3.946073e+00 -4.474817e+00)
186           	(-5.188944e+02 -1.639490e+02 5.658379e+02)	(-5.190927e+02 -1.678941e+02 5.703053e+02)	(1.982334e-01 3.945173e+00 -4.467336e+00)
187           	(-5.187627e+02 -1.622093e+02 5.645112e+02)	(-5.189608e+02 -1.661536e+02 5.689712e+02)	(1.980511e-01 3.944274e+00 -4.460054e+00)
188           	(-5.188435e+02 -1.604499e+02 5.635297e+02)	(-5.190413e+02 -1.643931e+02 5.679823e+02)	(1.978086e-01 3.943176e+00 -4.452659e+00)
189           	(-5.187445e+02 -1.595357e+02 5.627533e+02)	(-5.189420e+02 -1.634776e+02 5.671987e+02)	(1.975280e-01 3.941892e+00 -4.445309e+00)
190           	(-5.187887e+02 -1.576164e+02 5.619427e+02)	(-5.189859e+02 -1.615569e+02 5.663807e+02)	(1.972033e-01 3.940548e+00 -4.437954e+00)
191           	(-5.187391e+02 -1.563216e+02 5.608223e+02)	(-5.189360e+02 -1.602605e+02 5.652531e+02)	(1.968454e-01 3.938901e+00 -4.430842e+00)
192           	(-5.187445e+02 -1.546763e+02 5.595605e+02)	(-5.189410e+02 -1.586134e+02 5.639845e+02)	(1.964915e-01 3.937051e+00 -4.424022e+00)
193           	(-5.188458e+02 -1.586682e+02 5.622539e+02)	(-5.190418e+02 -1.626034e+02 5.666704e+02)	(1.960438e-01 3.935225e+00 -4.416455e+00)
194           	(-5.187795e+02 -1.588928e+02 5.616995e+02)	(-5.189750e+02 -1.628259e+02 5.661083e+02)	(1.955275e-01 3.933107e+00 -4.408813e+00)
195           	(-5.187171e+02 -1.588731e+02 5.614661e+02)	(-5.189121e+02 -1.628039e+02 5.658674e+02)	(1.949853e-01 3.930816e+00 -4.401252e+00)
196           	(-5.187010e+02 -1.583352e+02 5.601051e+02)	(-5.188953e+02 -1.622633e+02 5.644988e+02)	(1.943906e-01 3.928163e+00 -4.393773e+00)
197           	(-5.186795e+02 -1.581602e+02 5.602807e+02)	(-5.188733e+02 -1.620857e+02 5.646668e+02)	(1.937416e-01 3.925582e+00 -4.386106e+00)
198           	(-5.184317e+02 -1.570063e+02 5.593523e+02)	(-5.186250e+02 -1.609298e+02 5.637323e+02)	(1.933015e-01 3.923592e+00 -4.380040e+00)
199           	(-5.183808e+02 -1.561412e+02 5.586788e+02)	(-5.185736e+02 -1.600628e+02 5.630523e+02)	(1.928335e-01 3.921609e+00 -4.373483e+00)
200           	(-5.183342e+02 -1.546333e+02 5.576888e+02)	(-5.185266e+02 -1.585527e+02 5.620559e+02)	(1.923605e-01 3.919452e+00 -4.367049e+00)
201           	(-5.174952e+02 -1.494876e+02 5.550916e+02)	(-5.176872e+02 -1.534052e+02 5.594535e+02)	(1.920262e-01 3.917662e+00 -4.361867e+00)
202           	(-5.175148e+02 -1.506193e+02 5.553419e+02)	(-5.177065e+02 -1.545351e+02 5.596986e+02)	(1.917147e-01 3.915738e+00 -4.356736e+00)
203           	(-5.174815e+02 -1.512554e+02 5.554796e+02)	(-5.176729e+02 -1.551691e+02 5.598312e+02)	(1.913920e-01 3.913724e+00 -4.351659e+00)
204           	(-5.174269e+02 -1.518306e+02 5.555277e+02)	(-5.176179e+02 -1.557422e+02 5.598742e+02)	(1.910575e-01 3.911601e+00 -4.346577e+00)
205           	(-5.174578e+02 -1.520004e+02 5.538218e+02)	(-5.176485e+02 -1.559094e+02 5.581639e+02)	(1.906945e-01 3.909004e+00 -4.342072e+00)
206           	(-5.174875e+02 -1.529387e+02 5.542740e+02)	(-5.176778e+02 -1.568450e+02 5.586117e+02)	(1.903009e-01 3.906284e+00 -4.337696e+00)
207           	(-5.175040e+02 -1.529525e+02 5.543679e+02)	(-5.176938e+02 -1.568561e+02 5.587012e+02)	(1.898881e-01 3.903552e+00 -4.333320e+00)
208           	(-5.175395e+02 -1.522451e+02 5.537678e+02)	(-5.177290e+02 -1.561461e+02 5.580971e+02)	(1.895072e-01 3.901003e+00 -4.329362e+00)